ABAB...

600 atoms
5 atom types
0.00 22.00 xlo xhi
0.00 12.00 ylo yhi
0.00 24.00 zlo zhi
     
Atoms

1 5 0 0 0 0
2 5 0 2.1681 1.251765 0
3 5 0 0 2.50353 0
4 5 0 2.1681 3.755295 0
5 5 0 0 5.00706 0
6 5 0 2.1681 6.258825 0
7 5 0 0 7.51059 0
8 5 0 2.1681 8.762355 0
9 5 0 0 10.01412 0
10 5 0 2.1681 11.265885 0
11 5 0 4.3362 0 0
12 5 0 6.5043 1.251765 0
13 5 0 4.3362 2.50353 0
14 5 0 6.5043 3.755295 0
15 5 0 4.3362 5.00706 0
16 5 0 6.5043 6.258825 0
17 5 0 4.3362 7.51059 0
18 5 0 6.5043 8.762355 0
19 5 0 4.3362 10.01412 0
20 5 0 6.5043 11.265885 0
21 5 0 8.6724 0 0
22 5 0 10.840501 1.251765 0
23 5 0 8.6724 2.50353 0
24 5 0 10.840501 3.755295 0
25 5 0 8.6724 5.00706 0
26 5 0 10.840501 6.258825 0
27 5 0 8.6724 7.51059 0
28 5 0 10.840501 8.762355 0
29 5 0 8.6724 10.01412 0
30 5 0 10.840501 11.265885 0
31 5 0 13.0086 0 0
32 5 0 15.176701 1.251765 0
33 5 0 13.0086 2.50353 0
34 5 0 15.176701 3.755295 0
35 5 0 13.0086 5.00706 0
36 5 0 15.176701 6.258825 0
37 5 0 13.0086 7.51059 0
38 5 0 15.176701 8.762355 0
39 5 0 13.0086 10.01412 0
40 5 0 15.176701 11.265885 0
41 5 0 17.344801 0 0
42 5 0 19.512901 1.251765 0
43 5 0 17.344801 2.50353 0
44 5 0 19.512901 3.755295 0
45 5 0 17.344801 5.00706 0
46 5 0 19.512901 6.258825 0
47 5 0 17.344801 7.51059 0
48 5 0 19.512901 8.762355 0
49 5 0 17.344801 10.01412 0
50 5 0 19.512901 11.265885 0
51 5 0 0.722411 1.251765 2.041756
52 5 0 2.887909 0 2.041756
53 5 0 0.722411 3.755295 2.041756
54 5 0 2.887909 2.50353 2.041756
55 5 0 0.722411 6.258825 2.041756
56 5 0 2.887909 5.00706 2.041756
57 5 0 0.722411 8.762355 2.041756
58 5 0 2.887909 7.51059 2.041756
59 5 0 0.722411 11.265885 2.041756
60 5 0 2.887909 10.01412 2.041756
61 5 0 5.058611 1.251765 2.041756
62 5 0 7.22411 0 2.041756
63 5 0 5.058611 3.755295 2.041756
64 5 0 7.22411 2.50353 2.041756
65 5 0 5.058611 6.258825 2.041756
66 5 0 7.22411 5.00706 2.041756
67 5 0 5.058611 8.762355 2.041756
68 5 0 7.22411 7.51059 2.041756
69 5 0 5.058611 11.265885 2.041756
70 5 0 7.22411 10.01412 2.041756
71 5 0 9.394812 1.251765 2.041756
72 5 0 11.560309 0 2.041756
73 5 0 9.394812 3.755295 2.041756
74 5 0 11.560309 2.50353 2.041756
75 5 0 9.394812 6.258825 2.041756
76 5 0 11.560309 5.00706 2.041756
77 5 0 9.394812 8.762355 2.041756
78 5 0 11.560309 7.51059 2.041756
79 5 0 9.394812 11.265885 2.041756
80 5 0 11.560309 10.01412 2.041756
81 5 0 13.731011 1.251765 2.041756
82 5 0 15.896509 0 2.041756
83 5 0 13.731011 3.755295 2.041756
84 5 0 15.896509 2.50353 2.041756
85 5 0 13.731011 6.258825 2.041756
86 5 0 15.896509 5.00706 2.041756
87 5 0 13.731011 8.762355 2.041756
88 5 0 15.896509 7.51059 2.041756
89 5 0 13.731011 11.265885 2.041756
90 5 0 15.896509 10.01412 2.041756
91 5 0 18.067213 1.251765 2.041756
92 5 0 20.23271 0 2.041756
93 5 0 18.067213 3.755295 2.041756
94 5 0 20.23271 2.50353 2.041756
95 5 0 18.067213 6.258825 2.041756
96 5 0 20.23271 5.00706 2.041756
97 5 0 18.067213 8.762355 2.041756
98 5 0 20.23271 7.51059 2.041756
99 5 0 18.067213 11.265885 2.041756
100 5 0 20.23271 10.01412 2.041756
101 5 0 0 0 4.083512
102 5 0 2.1681 1.251765 4.083512
103 5 0 0 2.50353 4.083512
104 5 0 2.1681 3.755295 4.083512
105 5 0 0 5.00706 4.083512
106 5 0 2.1681 6.258825 4.083512
107 5 0 0 7.51059 4.083512
108 5 0 2.1681 8.762355 4.083512
109 5 0 0 10.01412 4.083512
110 5 0 2.1681 11.265885 4.083512
111 5 0 4.3362 0 4.083512
112 5 0 6.5043 1.251765 4.083512
113 5 0 4.3362 2.50353 4.083512
114 5 0 6.5043 3.755295 4.083512
115 5 0 4.3362 5.00706 4.083512
116 5 0 6.5043 6.258825 4.083512
117 5 0 4.3362 7.51059 4.083512
118 5 0 6.5043 8.762355 4.083512
119 5 0 4.3362 10.01412 4.083512
120 5 0 6.5043 11.265885 4.083512
121 5 0 8.6724 0 4.083512
122 5 0 10.840501 1.251765 4.083512
123 5 0 8.6724 2.50353 4.083512
124 5 0 10.840501 3.755295 4.083512
125 5 0 8.6724 5.00706 4.083512
126 5 0 10.840501 6.258825 4.083512
127 5 0 8.6724 7.51059 4.083512
128 5 0 10.840501 8.762355 4.083512
129 5 0 8.6724 10.01412 4.083512
130 5 0 10.840501 11.265885 4.083512
131 5 0 13.0086 0 4.083512
132 5 0 15.176701 1.251765 4.083512
133 5 0 13.0086 2.50353 4.083512
134 5 0 15.176701 3.755295 4.083512
135 5 0 13.0086 5.00706 4.083512
136 5 0 15.176701 6.258825 4.083512
137 5 0 13.0086 7.51059 4.083512
138 5 0 15.176701 8.762355 4.083512
139 5 0 13.0086 10.01412 4.083512
140 5 0 15.176701 11.265885 4.083512
141 5 0 17.344801 0 4.083512
142 5 0 19.512901 1.251765 4.083512
143 5 0 17.344801 2.50353 4.083512
144 5 0 19.512901 3.755295 4.083512
145 5 0 17.344801 5.00706 4.083512
146 5 0 19.512901 6.258825 4.083512
147 5 0 17.344801 7.51059 4.083512
148 5 0 19.512901 8.762355 4.083512
149 5 0 17.344801 10.01412 4.083512
150 5 0 19.512901 11.265885 4.083512
151 5 0 0.722411 1.251765 6.1314
152 5 0 2.887909 0 6.1314
153 5 0 0.722411 3.755295 6.1314
154 5 0 2.887909 2.50353 6.1314
155 5 0 0.722411 6.258825 6.1314
156 5 0 2.887909 5.00706 6.1314
157 5 0 0.722411 8.762355 6.1314
158 5 0 2.887909 7.51059 6.1314
159 5 0 0.722411 11.265885 6.1314
160 5 0 2.887909 10.01412 6.1314
161 5 0 5.058611 1.251765 6.1314
162 5 0 7.22411 0 6.1314
163 5 0 5.058611 3.755295 6.1314
164 5 0 7.22411 2.50353 6.1314
165 5 0 5.058611 6.258825 6.1314
166 5 0 7.22411 5.00706 6.1314
167 5 0 5.058611 8.762355 6.1314
168 5 0 7.22411 7.51059 6.1314
169 5 0 5.058611 11.265885 6.1314
170 5 0 7.22411 10.01412 6.1314
171 5 0 9.394812 1.251765 6.1314
172 5 0 11.560309 0 6.1314
173 5 0 9.394812 3.755295 6.1314
174 5 0 11.560309 2.50353 6.1314
175 5 0 9.394812 6.258825 6.1314
176 5 0 11.560309 5.00706 6.1314
177 5 0 9.394812 8.762355 6.1314
178 5 0 11.560309 7.51059 6.1314
179 5 0 9.394812 11.265885 6.1314
180 5 0 11.560309 10.01412 6.1314
181 5 0 13.731011 1.251765 6.1314
182 5 0 15.896509 0 6.1314
183 5 0 13.731011 3.755295 6.1314
184 5 0 15.896509 2.50353 6.1314
185 5 0 13.731011 6.258825 6.1314
186 5 0 15.896509 5.00706 6.1314
187 5 0 13.731011 8.762355 6.1314
188 5 0 15.896509 7.51059 6.1314
189 5 0 13.731011 11.265885 6.1314
190 5 0 15.896509 10.01412 6.1314
191 5 0 18.067213 1.251765 6.1314
192 5 0 20.23271 0 6.1314
193 5 0 18.067213 3.755295 6.1314
194 5 0 20.23271 2.50353 6.1314
195 5 0 18.067213 6.258825 6.1314
196 5 0 20.23271 5.00706 6.1314
197 5 0 18.067213 8.762355 6.1314
198 5 0 20.23271 7.51059 6.1314
199 5 0 18.067213 11.265885 6.1314
200 5 0 20.23271 10.01412 6.1314
201 5 0 0 0 8.173156
202 5 0 2.1681 1.251765 8.173156
203 5 0 0 2.50353 8.173156
204 5 0 2.1681 3.755295 8.173156
205 5 0 0 5.00706 8.173156
206 5 0 2.1681 6.258825 8.173156
207 5 0 0 7.51059 8.173156
208 5 0 2.1681 8.762355 8.173156
209 5 0 0 10.01412 8.173156
210 5 0 2.1681 11.265885 8.173156
211 5 0 4.3362 0 8.173156
212 5 0 6.5043 1.251765 8.173156
213 5 0 4.3362 2.50353 8.173156
214 5 0 6.5043 3.755295 8.173156
215 5 0 4.3362 5.00706 8.173156
216 5 0 6.5043 6.258825 8.173156
217 5 0 4.3362 7.51059 8.173156
218 5 0 6.5043 8.762355 8.173156
219 5 0 4.3362 10.01412 8.173156
220 5 0 6.5043 11.265885 8.173156
221 5 0 8.6724 0 8.173156
222 5 0 10.840501 1.251765 8.173156
223 5 0 8.6724 2.50353 8.173156
224 5 0 10.840501 3.755295 8.173156
225 5 0 8.6724 5.00706 8.173156
226 5 0 10.840501 6.258825 8.173156
227 5 0 8.6724 7.51059 8.173156
228 5 0 10.840501 8.762355 8.173156
229 5 0 8.6724 10.01412 8.173156
230 5 0 10.840501 11.265885 8.173156
231 5 0 13.0086 0 8.173156
232 5 0 15.176701 1.251765 8.173156
233 5 0 13.0086 2.50353 8.173156
234 5 0 15.176701 3.755295 8.173156
235 5 0 13.0086 5.00706 8.173156
236 5 0 15.176701 6.258825 8.173156
237 5 0 13.0086 7.51059 8.173156
238 5 0 15.176701 8.762355 8.173156
239 5 0 13.0086 10.01412 8.173156
240 5 0 15.176701 11.265885 8.173156
241 5 0 17.344801 0 8.173156
242 5 0 19.512901 1.251765 8.173156
243 5 0 17.344801 2.50353 8.173156
244 5 0 19.512901 3.755295 8.173156
245 5 0 17.344801 5.00706 8.173156
246 5 0 19.512901 6.258825 8.173156
247 5 0 17.344801 7.51059 8.173156
248 5 0 19.512901 8.762355 8.173156
249 5 0 17.344801 10.01412 8.173156
250 5 0 19.512901 11.265885 8.173156
251 5 0 0.722411 1.251765 10.214912
252 5 0 2.887909 0 10.214912
253 5 0 0.722411 3.755295 10.214912
254 5 0 2.887909 2.50353 10.214912
255 5 0 0.722411 6.258825 10.214912
256 5 0 2.887909 5.00706 10.214912
257 5 0 0.722411 8.762355 10.214912
258 5 0 2.887909 7.51059 10.214912
259 5 0 0.722411 11.265885 10.214912
260 5 0 2.887909 10.01412 10.214912
261 5 0 5.058611 1.251765 10.214912
262 5 0 7.22411 0 10.214912
263 5 0 5.058611 3.755295 10.214912
264 5 0 7.22411 2.50353 10.214912
265 5 0 5.058611 6.258825 10.214912
266 5 0 7.22411 5.00706 10.214912
267 5 0 5.058611 8.762355 10.214912
268 5 0 7.22411 7.51059 10.214912
269 5 0 5.058611 11.265885 10.214912
270 5 0 7.22411 10.01412 10.214912
271 5 0 9.394812 1.251765 10.214912
272 5 0 11.560309 0 10.214912
273 5 0 9.394812 3.755295 10.214912
274 5 0 11.560309 2.50353 10.214912
275 5 0 9.394812 6.258825 10.214912
276 5 0 11.560309 5.00706 10.214912
277 5 0 9.394812 8.762355 10.214912
278 5 0 11.560309 7.51059 10.214912
279 5 0 9.394812 11.265885 10.214912
280 5 0 11.560309 10.01412 10.214912
281 5 0 13.731011 1.251765 10.214912
282 5 0 15.896509 0 10.214912
283 5 0 13.731011 3.755295 10.214912
284 5 0 15.896509 2.50353 10.214912
285 5 0 13.731011 6.258825 10.214912
286 5 0 15.896509 5.00706 10.214912
287 5 0 13.731011 8.762355 10.214912
288 5 0 15.896509 7.51059 10.214912
289 5 0 13.731011 11.265885 10.214912
290 5 0 15.896509 10.01412 10.214912
291 5 0 18.067213 1.251765 10.214912
292 5 0 20.23271 0 10.214912
293 5 0 18.067213 3.755295 10.214912
294 5 0 20.23271 2.50353 10.214912
295 5 0 18.067213 6.258825 10.214912
296 5 0 20.23271 5.00706 10.214912
297 5 0 18.067213 8.762355 10.214912
298 5 0 20.23271 7.51059 10.214912
299 5 0 18.067213 11.265885 10.214912
300 5 0 20.23271 10.01412 10.214912
301 5 0 0 0 12.2628
302 5 0 2.1681 1.251765 12.2628
303 5 0 0 2.50353 12.2628
304 5 0 2.1681 3.755295 12.2628
305 5 0 0 5.00706 12.2628
306 5 0 2.1681 6.258825 12.2628
307 5 0 0 7.51059 12.2628
308 5 0 2.1681 8.762355 12.2628
309 5 0 0 10.01412 12.2628
310 5 0 2.1681 11.265885 12.2628
311 5 0 4.3362 0 12.2628
312 5 0 6.5043 1.251765 12.2628
313 5 0 4.3362 2.50353 12.2628
314 5 0 6.5043 3.755295 12.2628
315 5 0 4.3362 5.00706 12.2628
316 5 0 6.5043 6.258825 12.2628
317 5 0 4.3362 7.51059 12.2628
318 5 0 6.5043 8.762355 12.2628
319 5 0 4.3362 10.01412 12.2628
320 5 0 6.5043 11.265885 12.2628
321 5 0 8.6724 0 12.2628
322 5 0 10.840501 1.251765 12.2628
323 5 0 8.6724 2.50353 12.2628
324 5 0 10.840501 3.755295 12.2628
325 5 0 8.6724 5.00706 12.2628
326 5 0 10.840501 6.258825 12.2628
327 5 0 8.6724 7.51059 12.2628
328 5 0 10.840501 8.762355 12.2628
329 5 0 8.6724 10.01412 12.2628
330 5 0 10.840501 11.265885 12.2628
331 5 0 13.0086 0 12.2628
332 5 0 15.176701 1.251765 12.2628
333 5 0 13.0086 2.50353 12.2628
334 5 0 15.176701 3.755295 12.2628
335 5 0 13.0086 5.00706 12.2628
336 5 0 15.176701 6.258825 12.2628
337 5 0 13.0086 7.51059 12.2628
338 5 0 15.176701 8.762355 12.2628
339 5 0 13.0086 10.01412 12.2628
340 5 0 15.176701 11.265885 12.2628
341 5 0 17.344801 0 12.2628
342 5 0 19.512901 1.251765 12.2628
343 5 0 17.344801 2.50353 12.2628
344 5 0 19.512901 3.755295 12.2628
345 5 0 17.344801 5.00706 12.2628
346 5 0 19.512901 6.258825 12.2628
347 5 0 17.344801 7.51059 12.2628
348 5 0 19.512901 8.762355 12.2628
349 5 0 17.344801 10.01412 12.2628
350 5 0 19.512901 11.265885 12.2628
351 5 0 0.722411 1.251765 14.304556
352 5 0 2.887909 0 14.304556
353 5 0 0.722411 3.755295 14.304556
354 5 0 2.887909 2.50353 14.304556
355 5 0 0.722411 6.258825 14.304556
356 5 0 2.887909 5.00706 14.304556
357 5 0 0.722411 8.762355 14.304556
358 5 0 2.887909 7.51059 14.304556
359 5 0 0.722411 11.265885 14.304556
360 5 0 2.887909 10.01412 14.304556
361 5 0 5.058611 1.251765 14.304556
362 5 0 7.22411 0 14.304556
363 5 0 5.058611 3.755295 14.304556
364 5 0 7.22411 2.50353 14.304556
365 5 0 5.058611 6.258825 14.304556
366 5 0 7.22411 5.00706 14.304556
367 5 0 5.058611 8.762355 14.304556
368 5 0 7.22411 7.51059 14.304556
369 5 0 5.058611 11.265885 14.304556
370 5 0 7.22411 10.01412 14.304556
371 5 0 9.394812 1.251765 14.304556
372 5 0 11.560309 0 14.304556
373 5 0 9.394812 3.755295 14.304556
374 5 0 11.560309 2.50353 14.304556
375 5 0 9.394812 6.258825 14.304556
376 5 0 11.560309 5.00706 14.304556
377 5 0 9.394812 8.762355 14.304556
378 5 0 11.560309 7.51059 14.304556
379 5 0 9.394812 11.265885 14.304556
380 5 0 11.560309 10.01412 14.304556
381 5 0 13.731011 1.251765 14.304556
382 5 0 15.896509 0 14.304556
383 5 0 13.731011 3.755295 14.304556
384 5 0 15.896509 2.50353 14.304556
385 5 0 13.731011 6.258825 14.304556
386 5 0 15.896509 5.00706 14.304556
387 5 0 13.731011 8.762355 14.304556
388 5 0 15.896509 7.51059 14.304556
389 5 0 13.731011 11.265885 14.304556
390 5 0 15.896509 10.01412 14.304556
391 5 0 18.067213 1.251765 14.304556
392 5 0 20.23271 0 14.304556
393 5 0 18.067213 3.755295 14.304556
394 5 0 20.23271 2.50353 14.304556
395 5 0 18.067213 6.258825 14.304556
396 5 0 20.23271 5.00706 14.304556
397 5 0 18.067213 8.762355 14.304556
398 5 0 20.23271 7.51059 14.304556
399 5 0 18.067213 11.265885 14.304556
400 5 0 20.23271 10.01412 14.304556
401 5 0 0 0 16.346312
402 5 0 2.1681 1.251765 16.346312
403 5 0 0 2.50353 16.346312
404 5 0 2.1681 3.755295 16.346312
405 5 0 0 5.00706 16.346312
406 5 0 2.1681 6.258825 16.346312
407 5 0 0 7.51059 16.346312
408 5 0 2.1681 8.762355 16.346312
409 5 0 0 10.01412 16.346312
410 5 0 2.1681 11.265885 16.346312
411 5 0 4.3362 0 16.346312
412 5 0 6.5043 1.251765 16.346312
413 5 0 4.3362 2.50353 16.346312
414 5 0 6.5043 3.755295 16.346312
415 5 0 4.3362 5.00706 16.346312
416 5 0 6.5043 6.258825 16.346312
417 5 0 4.3362 7.51059 16.346312
418 5 0 6.5043 8.762355 16.346312
419 5 0 4.3362 10.01412 16.346312
420 5 0 6.5043 11.265885 16.346312
421 5 0 8.6724 0 16.346312
422 5 0 10.840501 1.251765 16.346312
423 5 0 8.6724 2.50353 16.346312
424 5 0 10.840501 3.755295 16.346312
425 5 0 8.6724 5.00706 16.346312
426 5 0 10.840501 6.258825 16.346312
427 5 0 8.6724 7.51059 16.346312
428 5 0 10.840501 8.762355 16.346312
429 5 0 8.6724 10.01412 16.346312
430 5 0 10.840501 11.265885 16.346312
431 5 0 13.0086 0 16.346312
432 5 0 15.176701 1.251765 16.346312
433 5 0 13.0086 2.50353 16.346312
434 5 0 15.176701 3.755295 16.346312
435 5 0 13.0086 5.00706 16.346312
436 5 0 15.176701 6.258825 16.346312
437 5 0 13.0086 7.51059 16.346312
438 5 0 15.176701 8.762355 16.346312
439 5 0 13.0086 10.01412 16.346312
440 5 0 15.176701 11.265885 16.346312
441 5 0 17.344801 0 16.346312
442 5 0 19.512901 1.251765 16.346312
443 5 0 17.344801 2.50353 16.346312
444 5 0 19.512901 3.755295 16.346312
445 5 0 17.344801 5.00706 16.346312
446 5 0 19.512901 6.258825 16.346312
447 5 0 17.344801 7.51059 16.346312
448 5 0 19.512901 8.762355 16.346312
449 5 0 17.344801 10.01412 16.346312
450 5 0 19.512901 11.265885 16.346312
451 5 0 0.722411 1.251765 18.4
452 5 0 2.887909 0 18.4
453 5 0 0.722411 3.755295 18.4
454 5 0 2.887909 2.50353 18.4
455 5 0 0.722411 6.258825 18.4
456 5 0 2.887909 5.00706 18.4
457 5 0 0.722411 8.762355 18.4
458 5 0 2.887909 7.51059 18.4
459 5 0 0.722411 11.265885 18.4
460 5 0 2.887909 10.01412 18.4
461 5 0 5.058611 1.251765 18.4
462 5 0 7.22411 0 18.4
463 5 0 5.058611 3.755295 18.4
464 5 0 7.22411 2.50353 18.4
465 5 0 5.058611 6.258825 18.4
466 5 0 7.22411 5.00706 18.4
467 5 0 5.058611 8.762355 18.4
468 5 0 7.22411 7.51059 18.4
469 5 0 5.058611 11.265885 18.4
470 5 0 7.22411 10.01412 18.4
471 5 0 9.394812 1.251765 18.4
472 5 0 11.560309 0 18.4
473 5 0 9.394812 3.755295 18.4
474 5 0 11.560309 2.50353 18.4
475 5 0 9.394812 6.258825 18.4
476 5 0 11.560309 5.00706 18.4
477 5 0 9.394812 8.762355 18.4
478 5 0 11.560309 7.51059 18.4
479 5 0 9.394812 11.265885 18.4
480 5 0 11.560309 10.01412 18.4
481 5 0 13.731011 1.251765 18.4
482 5 0 15.896509 0 18.4
483 5 0 13.731011 3.755295 18.4
484 5 0 15.896509 2.50353 18.4
485 5 0 13.731011 6.258825 18.4
486 5 0 15.896509 5.00706 18.4
487 5 0 13.731011 8.762355 18.4
488 5 0 15.896509 7.51059 18.4
489 5 0 13.731011 11.265885 18.4
490 5 0 15.896509 10.01412 18.4
491 5 0 18.067213 1.251765 18.4
492 5 0 20.23271 0 18.4
493 5 0 18.067213 3.755295 18.4
494 5 0 20.23271 2.50353 18.4
495 5 0 18.067213 6.258825 18.4
496 5 0 20.23271 5.00706 18.4
497 5 0 18.067213 8.762355 18.4
498 5 0 20.23271 7.51059 18.4
499 5 0 18.067213 11.265885 18.4
500 5 0 20.23271 10.01412 18.4
501 5 0 0 0 20.5
502 5 0 2.1681 1.251765 20.5
503 5 0 0 2.50353 20.5
504 5 0 2.1681 3.755295 20.5
505 5 0 0 5.00706 20.5
506 5 0 2.1681 6.258825 20.5
507 5 0 0 7.51059 20.5
508 5 0 2.1681 8.762355 20.5
509 5 0 0 10.01412 20.5
510 5 0 2.1681 11.265885 20.5
511 5 0 4.3362 0 20.5
512 5 0 6.5043 1.251765 20.5
513 5 0 4.3362 2.50353 20.5
514 5 0 6.5043 3.755295 20.5
515 5 0 4.3362 5.00706 20.5
516 5 0 6.5043 6.258825 20.5
517 5 0 4.3362 7.51059 20.5
518 5 0 6.5043 8.762355 20.5
519 5 0 4.3362 10.01412 20.5
520 5 0 6.5043 11.265885 20.5
521 5 0 8.6724 0 20.5
522 5 0 10.840501 1.251765 20.5
523 5 0 8.6724 2.50353 20.5
524 5 0 10.840501 3.755295 20.5
525 5 0 8.6724 5.00706 20.5
526 5 0 10.840501 6.258825 20.5
527 5 0 8.6724 7.51059 20.5
528 5 0 10.840501 8.762355 20.5
529 5 0 8.6724 10.01412 20.5
530 5 0 10.840501 11.265885 20.5
531 5 0 13.0086 0 20.5
532 5 0 15.176701 1.251765 20.5
533 5 0 13.0086 2.50353 20.5
534 5 0 15.176701 3.755295 20.5
535 5 0 13.0086 5.00706 20.5
536 5 0 15.176701 6.258825 20.5
537 5 0 13.0086 7.51059 20.5
538 5 0 15.176701 8.762355 20.5
539 5 0 13.0086 10.01412 20.5
540 5 0 15.176701 11.265885 20.5
541 5 0 17.344801 0 20.5
542 5 0 19.512901 1.251765 20.5
543 5 0 17.344801 2.50353 20.5
544 5 0 19.512901 3.755295 20.5
545 5 0 17.344801 5.00706 20.5
546 5 0 19.512901 6.258825 20.5
547 5 0 17.344801 7.51059 20.5
548 5 0 19.512901 8.762355 20.5
549 5 0 17.344801 10.01412 20.5
550 5 0 19.512901 11.265885 20.5
551 5 0 0.722411 1.251765 22.6
552 5 0 2.887909 0 22.6
553 5 0 0.722411 3.755295 22.6
554 5 0 2.887909 2.50353 22.6
555 5 0 0.722411 6.258825 22.6
556 5 0 2.887909 5.00706 22.6
557 5 0 0.722411 8.762355 22.6
558 5 0 2.887909 7.51059 22.6
559 5 0 0.722411 11.265885 22.6
560 5 0 2.887909 10.01412 22.6
561 5 0 5.058611 1.251765 22.6
562 5 0 7.22411 0 22.6
563 5 0 5.058611 3.755295 22.6
564 5 0 7.22411 2.50353 22.6
565 5 0 5.058611 6.258825 22.6
566 5 0 7.22411 5.00706 22.6
567 5 0 5.058611 8.762355 22.6
568 5 0 7.22411 7.51059 22.6
569 5 0 5.058611 11.265885 22.6
570 5 0 7.22411 10.01412 22.6
571 5 0 9.394812 1.251765 22.6
572 5 0 11.560309 0 22.6
573 5 0 9.394812 3.755295 22.6
574 5 0 11.560309 2.50353 22.6
575 5 0 9.394812 6.258825 22.6
576 5 0 11.560309 5.00706 22.6
577 5 0 9.394812 8.762355 22.6
578 5 0 11.560309 7.51059 22.6
579 5 0 9.394812 11.265885 22.6
580 5 0 11.560309 10.01412 22.6
581 5 0 13.731011 1.251765 22.6
582 5 0 15.896509 0 22.6
583 5 0 13.731011 3.755295 22.6
584 5 0 15.896509 2.50353 22.6
585 5 0 13.731011 6.258825 22.6
586 5 0 15.896509 5.00706 22.6
587 5 0 13.731011 8.762355 22.6
588 5 0 15.896509 7.51059 22.6
589 5 0 13.731011 11.265885 22.6
590 5 0 15.896509 10.01412 22.6
591 5 0 18.067213 1.251765 22.6
592 5 0 20.23271 0 22.6
593 5 0 18.067213 3.755295 22.6
594 5 0 20.23271 2.50353 22.6
595 5 0 18.067213 6.258825 22.6
596 5 0 20.23271 5.00706 22.6
597 5 0 18.067213 8.762355 22.6
598 5 0 20.23271 7.51059 22.6
599 5 0 18.067213 11.265885 22.6
600 5 0 20.23271 10.01412 22.6
     
     
     
     
     
     
     
     
     
     
     
     
     
     
     
     
     
     
     
     
     
     
     
     
     
     
     
     
     
     
     
     
     
     
     
     
     
     
     
     
     
     
     
     
     
     
     
     
     
     
     
     
     
     
     
     
     
     
     
     
     
     
     
     
     
     
     
     
     
     
     
     
     
     
     
     
     
     
     
     
     
     
     
     
     
     
     
     
     
     
     
     
     
     
     
     
     
     
     
     
     
     
     
     
     
     
     
     
     
     
     
     
     
     
     
     
     
     
     
     
     
     
     
     
     
     
     
     
     
     
     
     
     
     
     
     
     
     
     
     
     
     
     
     
     
     
     
     
     
     
     
     
     
     
     
     
     
     
     
     
     
     
     
     
     
     
     
     
     
     
     
     
     
     
     
     
     
     
     
     
     
     
     
     
     
     
     
     
     
     
     
     
     
     
     
     
     
     
     
     
     
     
     
     
     
     
     
     
     
     
     
     
     
     
     
     
     
     
     
     
     
     
     
     
     
     
     
     
     
     
     
     
     
     
     
     
     
     
     
     
     
     
     
     
     
     
     
     
     
     
     
     
     
     
     
     
     
     
     
     
     
     
     
     
     
     
     
     
     
     
     
     
     
     
     
     
     
     
     
     
     
     
     
     
     
     
     
     
     
     
     
     
     
     
     
     
     
     
     
     
     
     
     
     
     
     
     
     
     
     
     
     
     
     
     
     
     
     
     
     
     
     
     
     
     
     
     
     
     
     
     
     
     
     
     
     
     
     
     
     
     
     
     
     
     
     
     
     
     
     
     
     
     
     
     
     
     
     
     
     
     
     
     
     
     
     
     
     
     
     
     
     
     
     
     
     
     
     
     
     
     
     
     
     
     
     
     
     
     
     
     
     
     
     
     
     
     
     
     
     
     
     
     
     
     
     
     
     
     
     
     
     
     
     
     
     
     
     
     
     
     
     
     
     
     
     
     
     
     
     
     
     
     
     
     
     
     
     
     
     
     
     
     
     
     
     
     
     
     
     
     
     
     
     
     
     
     
     
     
     
     
     
     
     
     
     
     
     
     
     
     
     
     
     
     
     
     
     
     
     
     
     
     
     
     
     
     
     
     
     
     
     
     
     
     
     
     
     
     
     
     
     
     
     
     
     
     
     
     
     
     
     
     
     
     
     
     
     
     
     
     
     
     
     
     
     
     
     
     
     
     
     
     
     
     
     
     
     
     
     
     
     
     
     
     
     
     
     
     
     
     
     
     
     
     
     
     
     
     
     
     
     
     
     
     
     
     
     
     
     
     
     
     
     
     
     
     
     
     
     
     
     
     
     
     
     
     
     
     
     
     
     
     
     
     
     
     
     
     
     
     
     
     
     
     
     
     
     
     
     
     
     
     
     
     
     
     
     
     
     
     
     
     
     
     
     
     
     
     
     
     
     
     
     
     
     
     
     
     
     
     
     
     
     
     
     
     
     
     
     
     
     
     
     
     
     
     
     
     
     
     
     
     
     
     
     
     
     
     
     
     
     
     
     
     
     
     
     
     
     
     
     
     
     
     
     
     
     
     
     
     
     
     
     
     
     
     
     
     
     
     
     
     
     
     
     
     
     
     
     
     
     
     
     
     
     
     
     
     
     
     
     
     
     
     
     
     
     
     
     
     
     
     
     
     
     
     
     
     
     
     
     
     
     
     
     
     
     
     
     
     
     
     
     
     
     
     
     
     
     
     
     
     
     
     
     
     
     
     
     
     
     
     
     
     
     
     
     
     
     
     
     
     
     
     
     
     
     
     
     
     
     
     
     
     
     
     
     
     
     
     
     
     
     
     
     
     
     
     
     
     
     
     
     
     
     
     
     
     
     
     
     
     
     
     
     
     
     
     
     
     
     
     
     
     
     
     
     
     
     
     
     
     
     
     
     
     
     
     
     
     
     
     
     
     
     
     
     
     
     
     
     
     
     
     
     
     
     
     
     
     
     
     
     
     
     
     
     
     
     
     
     
     
     
     
     
     
     
     
     
     
     
     
     
     
     
     
     
     
     
     
     
     
     
     
     
     
     
     
     
     
     
     
     
     
     
     
     
     
     
     
     
     
     
     
     
     
     
     
     
     
     
     
     
     
     
     
     
     
     
     
     
     
     
     
     
     
     
     
     
     
     
     
     
     
     
     
     
     
     
     
     
     
     
     
     
     
     
     
     
     
     
     
     
     
     
     
     
     
     
     
     
     
     
     
     
     
     
     
     
     
     
     
     
     
     
     
     
     
     
     
     
     
     
     
     
     
     
     
     
     
     
     
     
     
     
     
     
     
     
     
     
     
     
     
     
     
     
     
     
     
     
     
     
     
     
     
     
     
     
     
     
     
     
     
     
     
     
     
     
     
     
     
     
     
     
     
     
     
     
     
     
     
     
     
     
     
     
     
     
     
     
     
     
     
     
     
     
     
     
     
     
     
     
     
     
     
     
     
     
     
     
     
     
     
     
     
     
     
     
     
     
     
     
     
     
     
     
     
     
     
     
     
     
     
     
     
     
     
     
     
     
     
     
     
     
     
     
     
     
     
     
     
     
     
     
     
     
     
     
     
     
     
     
     
     
     
     
     
     
     
     
     
     
     
     
     
     
     
     
     
     
     
     
     
     
     
     
     
     
     
     
     
     
     
     
     
     
     
     
     
     
     
     
     
     
     
     
     
     
     
     
     
     
     
     
     
     
     
     
     
     
     
     
     
     
     
     
     
     
     
     
     
     
     
     
     
     
     
     
     
     
     
     
     
     
     
     
     
     
     
     
     
     
     
     
     
     
     
     
     
     
     
     
     
     
     
     
     
     
     
     
     
     
     
     
     
     
     
     
     
     
     
     
     
     
     
     
     
     
     
     
     
     
     
     
     
     
     
     
     
     
     
     
     
     
     
     
     
     
     
     
     
     
     
     
     
     
     
     
     
     
     
     
     
     
     
     
     
     
     
     
     
     
     
     
     
     
     
     
     
     
     
     
     
     
     
     
     
     
     
     
     
     
     
     
     
     
     
     
     
     
     
     
     
     
     
     
     
     
     
     
     
     
     
     
     
     
     
     
     
     
     
     
     
     
     
     
     
     
     
     
     
     
     
     
     
     
     
     
     
     
     
     
     
     
     
     
     
     
     
     
     
     
     
     
     
     
     
     
     
     
     
     
     
     
     
     
     
     
     
     
     
     
     
     
     
     
     
     
     
     
     
     
     
     
     
     
     
     
     
     
     
     
     
     
     
     
     
     
     
     
     
     
     
     
     
     
     
     
     
     
     
     
     
     
     
     
     
     
     
     
     
     
     
     
     
     
     
     
     
     
     
     
     
     
     
     
     
     
     
     
     
     
     
     
     
     
     
     
     
     
     
     
     
     
     
     
     
     
     
     
     
     
     
     
     
     
     
     
     
     
     
     
     
     
     
     
     
     
     
     
     
     
     
     
     
     
     
     
     
     
     
     
     
     
     
     
     
     
     
     
     
     
     
     
     
     
     
     
     
     
     
     
     
     
     
     
     
     
     
     
     
     
     
     
     
     
     
     
     
     
     
     
     
     
     
     
     
     
     
     
     
     
     
     
     
     
     
     
     
     
     
     
     
     
     
     
     
     
     
     
     
     
     
     
     
     
     
     
     
     
     
     
     
     
     
     
     
     
     
     
     
     
     
     
     
     
     
     
     
     
     
     
     
     
     
     
     
     
     
     
     
     
     
     
     
     
     
     
     
     
     
     
     
     
     
     
     
     
     
     
     
     
     
     
     
     
     
     
     
     
     
     
     
     
     
     
     
     
     
     
     
     
     
     
     
     
     
     
     
     
     
     
     
     
     
     
     
     
     
     
     
     
     
     
     
     
     
     
     
     
     
     
     
     
     
     
     
     
     
     
     
     
     
     
     
     
     
     
     
     
     
     
     
     
     
     
     
     
     
     
     
     
     
     
     
     
     
     
     
     
     
     
     
     
     
     
     
     
     
     
     
     
     
     
     
     
     
     
     
     
     
     
     
     
     
     
     
     
     
     
     
     
     
     
     
     
     
     
     
     
     
     